 Gaussian 16, Revision C.02,
 Gaussian 16:  ES64L-G16RevC.02  7-Dec-2021

 ---------------------------------------------
 # b3lyp/6-31g* SCF=YQC guess=check geom=check
 ---------------------------------------------

 -----
 Title
 -----
 Structure from the checkpoint file:  "4planar.chk"
 Charge =  0 Multiplicity = 1

                         Standard orientation:
 ---------------------------------------------------------------------
 Center     Atomic      Atomic             Coordinates (Angstroms)
 Number     Number       Type             X           Y           Z
 ---------------------------------------------------------------------
      1         14           0        4.478734    1.875057    0.963937
      2          7           0        2.808328    2.227878    0.500975
      3         14           0        1.633464    1.108657   -0.185028
      4          7           0        0.060237    1.803647    0.064259
      5         14           0        5.079024   -1.179433    0.203728
      6          7           0        3.608092   -1.852450   -0.516782
      7         14           0        2.062685   -1.033205   -0.718506
      8          7           0        0.840280   -2.258217   -0.971517
      9          7           0        1.914574    0.373755   -1.761114
     10          7           0        4.712189    0.514411   -0.140186
     11         14           0       -3.767573    1.384993   -1.746942
     12          7           0       -4.137934    2.129936   -0.006138
     13         14           0       -4.387508    0.282691    0.967100
     14         14           0       -2.428554   -0.644672   -1.388461
     15          7           0       -1.565224   -0.934165    0.463302
     16         14           0       -2.513108   -1.820530    1.781575
     17          7           0       -4.216708   -0.261503   -0.789727
     18          7           0       -4.164886   -1.377358    1.694776
     19          1           0        2.440713    3.107036    0.860785
     20          1           0       -0.048520    2.695397    0.533783
     21          1           0        3.609175   -2.862770   -0.645736
     22          1           0        1.050975   -3.241033   -0.834126
     23          1           0        1.938466    0.624874   -2.748907
     24          1           0        4.096122    0.597253   -0.953537
     25          1           0       -4.986629    2.695914   -0.057051
     26          1           0       -1.170204   -0.044795    0.796397
     27          1           0       -4.920310   -0.929852   -1.098522
     28          1           0       -4.808596   -2.122189    1.439453
     29          1           0       -1.821849   -1.437367    3.039161
     30          1           0       -2.289232   -3.265030    1.512598
     31          1           0       -5.779457    0.617588    1.357454
     32          1           0       -3.229776    0.787304    1.769944
     33          1           0       -3.423521    2.722025    0.417053
     34          1           0       -0.642389    1.679750   -0.665249
     35          1           0        3.658070    5.318378    3.582471
     36          1           0        5.729158   -5.477056    0.902502
     37          1           0        0.207032   -2.134623   -1.759427
     38          1           0       -0.743056   -1.502897    0.189343
     39          1           0        5.873192   -4.750587    0.968073
     40          1           0        4.047700    4.731305    3.344981
 ---------------------------------------------------------------------

 SCF Done:  E(RB3LYP) =  -2876.88327343     a.u. after    1 cycles

 The electronic state is 1-A.
 Alpha  occ. eigenvalues --  -66.17252 -66.17185 -66.16514 -66.16296 -66.14887
 Alpha  occ. eigenvalues --  -66.14843 -66.11508 -66.10873 -14.36221 -14.33711
 Alpha  occ. eigenvalues --  -14.33370 -14.33104 -14.32810 -14.32749 -14.32691
 Alpha  occ. eigenvalues --  -14.31483 -14.31406 -14.29388  -5.31134  -5.31046
 Alpha  occ. eigenvalues --   -5.30752  -5.30154  -5.29058  -5.29014  -5.25697
 Alpha  occ. eigenvalues --   -5.25124  -3.67149  -3.67077  -3.67047  -3.66996
 Alpha  occ. eigenvalues --   -3.66927  -3.66827  -3.66776  -3.66610  -3.66481
 Alpha  occ. eigenvalues --   -3.66163  -3.66088  -3.65989  -3.65200  -3.65156
 Alpha  occ. eigenvalues --   -3.64870  -3.64827  -3.64518  -3.64475  -3.61788
 Alpha  occ. eigenvalues --   -3.61475  -3.61190  -3.61136  -3.60903  -3.60697
 Alpha  occ. eigenvalues --   -0.89177  -0.87700  -0.87030  -0.86404  -0.85259
 Alpha  occ. eigenvalues --   -0.83728  -0.83576  -0.82631  -0.81404  -0.81365
 Alpha  occ. eigenvalues --   -0.57235  -0.54869  -0.54309  -0.53180  -0.52971
 Alpha  occ. eigenvalues --   -0.51751  -0.51303  -0.50710  -0.49787  -0.49469
 Alpha  occ. eigenvalues --   -0.48752  -0.47820  -0.47302  -0.47062  -0.43929
 Alpha  occ. eigenvalues --   -0.43681  -0.43567  -0.43339  -0.41907  -0.41512
 Alpha  occ. eigenvalues --   -0.40185  -0.39430  -0.37909  -0.36798  -0.35936
 Alpha  occ. eigenvalues --   -0.34924  -0.34124  -0.33042  -0.31367  -0.29826
 Alpha  occ. eigenvalues --   -0.29644  -0.29096  -0.28714  -0.28142  -0.27510
 Alpha  occ. eigenvalues --   -0.27031  -0.23896  -0.23373  -0.22859  -0.22145
 Alpha  occ. eigenvalues --   -0.20417  -0.15376
 Alpha virt. eigenvalues --   -0.05207  -0.04921  -0.02098  -0.00475   0.01443
 Alpha virt. eigenvalues --    0.01759   0.02249   0.03414   0.03988   0.04293
 Alpha virt. eigenvalues --    0.05061   0.05315   0.05514   0.06509   0.06833

 Mulliken charges:
               1
     1  Si   0.496504
     2  N   -0.822254
     3  Si   0.734300
     4  N   -0.908011
     5  Si   0.498815
     6  N   -0.820103
     7  Si   0.708657
     8  N   -0.911702
     9  N   -0.773686
    10  N   -0.844629
    11  Si   0.173399
    12  N   -0.904191
    13  Si   0.772771
    14  Si   0.143257
    15  N   -0.999583
    16  Si   0.673844
    17  N   -0.890213
    18  N   -0.819421
    19  H    0.333009
    20  H    0.321521
    21  H    0.334099
    22  H    0.328790
    23  H    0.300580
    24  H    0.345988
    25  H    0.345236
    26  H    0.401523
    27  H    0.350940
    28  H    0.314862
    29  H   -0.081490
    30  H   -0.088146
    31  H   -0.075676
    32  H   -0.135024
    33  H    0.326708
    34  H    0.365732
    35  H   -0.016601
    36  H   -0.016004
    37  H    0.371052
    38  H    0.432065
    39  H    0.016243
    40  H    0.016843
 Sum of Mulliken charges =  -0.00000

 Dipole moment (field-independent basis, Debye):
    X=             -0.9562    Y=             -0.4370    Z=              0.5680  Tot=              1.1950
 Quadrupole moment (field-independent basis, Debye-Ang):
   XX=           -192.6331   YY=           -149.0320   ZZ=           -183.3429
   XY=             -2.8210   XZ=            -16.1143   YZ=              6.6319

 1\1\GINC-HAMILTON\SP\RB3LYP\6-31G(d)\H22N10Si8\CPARISH\14-May-2025\0\\
 # b3lyp/6-31g* SCF=YQC guess=check geom=check\\Title\\0,1\Si,0,4.46313
 56651,-1.9272964176,-0.9820912164\N,0,2.7974459602,-2.2604501961,-0.48
 85745351\Si,0,1.6330064386,-1.1162699276,0.1736122581\N,0,0.0555110907
 ,-1.815117034,-0.0345189944\Si,0,5.0787407648,1.1490547214,-0.32996494
 65\N,0,3.6176942729,1.8491603575,0.3848243482\Si,0,2.0729702555,1.0409
 142383,0.6312064172\N,0,0.8562078339,2.2766824282,0.8577232345\N,0,1.9
 339154509,-0.330552685,1.721273571\N,0,4.7122747227,-0.5316065803,0.07

 Normal termination of Gaussian 16 at Wed May 14 17:35:32 2025.
